PINCHOUT
#--PINCHXY
#--1*  1*
#--/
MAPAXES
   0.58700000E+06   0.59464000E+07   0.58700000E+06   0.59465000E+07
   0.58710000E+06   0.59465000E+07
/
--GRIDUNIT
-- 'METRES  ' '        '
--/
SPECGRID
20 20 6 1 F
/
COORD
   0.00000000E+00  -.10000000E+05  0.24443262E+03  0.00000000E+00  -.10000000E+05  0.25883965E+03
   0.74999995E+03  -.10000000E+05  0.23968813E+03  0.74999995E+03  -.10000000E+05  0.25672598E+03
   0.15000000E+04  -.10000000E+05  0.23561172E+03  0.15000000E+04  -.10000000E+05  0.25500818E+03
   0.22499998E+04  -.10000000E+05  0.23276699E+03  0.22499998E+04  -.10000000E+05  0.25397500E+03
   0.30000000E+04  -.10000000E+05  0.23775281E+03  0.30000000E+04  -.10000000E+05  0.25738511E+03
   0.37500000E+04  -.10000000E+05  0.24058894E+03  0.37500000E+04  -.10000000E+05  0.25938342E+03
   0.45000000E+04  -.10000000E+05  0.23982776E+03  0.45000000E+04  -.10000000E+05  0.25901646E+03
   0.52500004E+04  -.10000000E+05  0.22777605E+03  0.52500004E+04  -.10000000E+05  0.25229976E+03
   0.60000000E+04  -.10000000E+05  0.22448711E+03  0.60000000E+04  -.10000000E+05  0.24889355E+03
   0.67500000E+04  -.10000000E+05  0.22388408E+03  0.67500000E+04  -.10000000E+05  0.24799199E+03
   0.75000000E+04  -.10000000E+05  0.22410571E+03  0.75000000E+04  -.10000000E+05  0.24810229E+03
   0.82500008E+04  -.10000000E+05  0.22212122E+03  0.82500008E+04  -.10000000E+05  0.24485122E+03
   0.90000008E+04  -.10000000E+05  0.23135664E+03  0.90000008E+04  -.10000000E+05  0.25377146E+03
   0.97500008E+04  -.10000000E+05  0.23105601E+03  0.97500008E+04  -.10000000E+05  0.25359490E+03
   0.10500002E+05  -.10000000E+05  0.23127559E+03  0.10500002E+05  -.10000000E+05  0.25364912E+03
   0.11250002E+05  -.10000000E+05  0.23221094E+03  0.11250002E+05  -.10000000E+05  0.25427273E+03
   0.12000002E+05  -.10000000E+05  0.23322102E+03  0.12000002E+05  -.10000000E+05  0.25522202E+03
   0.12750002E+05  -.10000000E+05  0.23428337E+03  0.12750002E+05  -.10000000E+05  0.25628389E+03
   0.13500002E+05  -.10000000E+05  0.23611458E+03  0.13500002E+05  -.10000000E+05  0.25811301E+03
   0.14250002E+05  -.10000000E+05  0.23928628E+03  0.14250002E+05  -.10000000E+05  0.26128428E+03
   0.15000000E+05  -.10000000E+05  0.24311230E+03  0.15000000E+05  -.10000000E+05  0.26511304E+03
   0.00000000E+00  -.95000000E+04  0.24289099E+03  0.00000000E+00  -.95000000E+04  0.25812988E+03
   0.75000000E+03  -.95000000E+04  0.23721975E+03  0.75000000E+03  -.95000000E+04  0.25566799E+03
   0.15000000E+04  -.95000000E+04  0.23304612E+03  0.15000000E+04  -.95000000E+04  0.25394241E+03
   0.22500000E+04  -.95000000E+04  0.23076978E+03  0.22500000E+04  -.95000000E+04  0.25283796E+03
   0.30000000E+04  -.95000000E+04  0.23658118E+03  0.30000000E+04  -.95000000E+04  0.25748601E+03
   0.37500000E+04  -.95000000E+04  0.23550305E+03  0.37500000E+04  -.95000000E+04  0.25726465E+03
   0.45000000E+04  -.95000000E+04  0.21843706E+03  0.45000000E+04  -.95000000E+04  0.23924612E+03
   0.52500004E+04  -.95000000E+04  0.22178196E+03  0.52500004E+04  -.95000000E+04  0.24335659E+03
   0.59999996E+04  -.95000000E+04  0.22066511E+03  0.59999996E+04  -.95000000E+04  0.24166594E+03
   0.67499992E+04  -.95000000E+04  0.21958027E+03  0.67499992E+04  -.95000000E+04  0.24056804E+03
   0.74999992E+04  -.95000000E+04  0.21932776E+03  0.74999992E+04  -.95000000E+04  0.24029495E+03
   0.82500008E+04  -.95000000E+04  0.21944194E+03  0.82500008E+04  -.95000000E+04  0.24035859E+03
   0.90000016E+04  -.95000000E+04  0.22732964E+03  0.90000016E+04  -.95000000E+04  0.24934792E+03
   0.97500016E+04  -.95000000E+04  0.22628455E+03  0.97500016E+04  -.95000000E+04  0.24821716E+03
   0.10500002E+05  -.95000000E+04  0.22734458E+03  0.10500002E+05  -.95000000E+04  0.24934724E+03
   0.11250002E+05  -.95000000E+04  0.22836812E+03  0.11250002E+05  -.95000000E+04  0.25036609E+03
   0.12000001E+05  -.95000000E+04  0.22909348E+03  0.12000001E+05  -.95000000E+04  0.25109348E+03
   0.12750001E+05  -.95000000E+04  0.23084441E+03  0.12750001E+05  -.95000000E+04  0.25284285E+03
   0.13500002E+05  -.95000000E+04  0.23313186E+03  0.13500002E+05  -.95000000E+04  0.25513186E+03
   0.14250003E+05  -.95000000E+04  0.23648772E+03  0.14250003E+05  -.95000000E+04  0.25848770E+03
   0.15000000E+05  -.95000000E+04  0.24125974E+03  0.15000000E+05  -.95000000E+04  0.26325969E+03
   0.00000000E+00  -.90000000E+04  0.24037561E+03  0.00000000E+00  -.90000000E+04  0.25702300E+03
   0.75000000E+03  -.90000000E+04  0.23433833E+03  0.75000000E+03  -.90000000E+04  0.25445457E+03
   0.15000000E+04  -.90000000E+04  0.23055847E+03  0.15000000E+04  -.90000000E+04  0.25276716E+03
   0.22500000E+04  -.90000000E+04  0.22942915E+03  0.22500000E+04  -.90000000E+04  0.25149380E+03
   0.30000000E+04  -.90000000E+04  0.23331511E+03  0.30000000E+04  -.90000000E+04  0.25486270E+03
   0.37500000E+04  -.90000000E+04  0.23267896E+03  0.37500000E+04  -.90000000E+04  0.25380891E+03
   0.45000000E+04  -.90000000E+04  0.21580405E+03  0.45000000E+04  -.90000000E+04  0.23589221E+03
   0.52500004E+04  -.90000000E+04  0.21607568E+03  0.52500004E+04  -.90000000E+04  0.23634331E+03
   0.59999996E+04  -.90000000E+04  0.21579658E+03  0.59999996E+04  -.90000000E+04  0.23677383E+03
   0.67499992E+04  -.90000000E+04  0.21426909E+03  0.67499992E+04  -.90000000E+04  0.23527153E+03
   0.74999992E+04  -.90000000E+04  0.21384102E+03  0.74999992E+04  -.90000000E+04  0.23449219E+03
   0.82500008E+04  -.90000000E+04  0.21380513E+03  0.82500008E+04  -.90000000E+04  0.23451221E+03
   0.90000016E+04  -.90000000E+04  0.21413538E+03  0.90000016E+04  -.90000000E+04  0.23516067E+03
   0.97500016E+04  -.90000000E+04  0.22409407E+03  0.97500016E+04  -.90000000E+04  0.24538008E+03
   0.10500002E+05  -.90000000E+04  0.22370757E+03  0.10500002E+05  -.90000000E+04  0.24490681E+03
   0.11250002E+05  -.90000000E+04  0.22470950E+03  0.11250002E+05  -.90000000E+04  0.24675618E+03
   0.12000002E+05  -.90000000E+04  0.22629092E+03  0.12000002E+05  -.90000000E+04  0.24828330E+03
   0.12750002E+05  -.90000000E+04  0.22776216E+03  0.12750002E+05  -.90000000E+04  0.24975669E+03
   0.13499998E+05  -.90000000E+04  0.23025391E+03  0.13499998E+05  -.90000000E+04  0.25225254E+03
   0.14250000E+05  -.90000000E+04  0.23368154E+03  0.14250000E+05  -.90000000E+04  0.25568157E+03
   0.15000000E+05  -.90000000E+04  0.23865042E+03  0.15000000E+05  -.90000000E+04  0.26064341E+03
   0.00000000E+00  -.85000000E+04  0.23854111E+03  0.00000000E+00  -.85000000E+04  0.25623213E+03
   0.75000000E+03  -.85000000E+04  0.23214121E+03  0.75000000E+03  -.85000000E+04  0.25351965E+03
   0.15000000E+04  -.85000000E+04  0.22935762E+03  0.15000000E+04  -.85000000E+04  0.25182485E+03
   0.22500000E+04  -.85000000E+04  0.22866143E+03  0.22500000E+04  -.85000000E+04  0.25064451E+03
   0.30000000E+04  -.85000000E+04  0.23210376E+03  0.30000000E+04  -.85000000E+04  0.25337930E+03
   0.37500000E+04  -.85000000E+04  0.22110073E+03  0.37500000E+04  -.85000000E+04  0.24167686E+03
   0.45000000E+04  -.85000000E+04  0.21607891E+03  0.45000000E+04  -.85000000E+04  0.23595557E+03
   0.52500004E+04  -.85000000E+04  0.21534551E+03  0.52500004E+04  -.85000000E+04  0.23645486E+03
   0.59999996E+04  -.85000000E+04  0.21327305E+03  0.59999996E+04  -.85000000E+04  0.23400430E+03
   0.67499992E+04  -.85000000E+04  0.21263945E+03  0.67499992E+04  -.85000000E+04  0.23337139E+03
   0.74999992E+04  -.85000000E+04  0.21218689E+03  0.74999992E+04  -.85000000E+04  0.23369561E+03
   0.82500008E+04  -.85000000E+04  0.21209182E+03  0.82500008E+04  -.85000000E+04  0.23347034E+03
   0.90000016E+04  -.85000000E+04  0.21238308E+03  0.90000016E+04  -.85000000E+04  0.23268972E+03
   0.97500016E+04  -.85000000E+04  0.21314929E+03  0.97500016E+04  -.85000000E+04  0.23460818E+03
   0.10500002E+05  -.85000000E+04  0.22223787E+03  0.10500002E+05  -.85000000E+04  0.24274558E+03
   0.11250002E+05  -.85000000E+04  0.22206335E+03  0.11250002E+05  -.85000000E+04  0.24334333E+03
   0.12000000E+05  -.85000000E+04  0.22436118E+03  0.12000000E+05  -.85000000E+04  0.24637029E+03
   0.12750000E+05  -.85000000E+04  0.22650310E+03  0.12750000E+05  -.85000000E+04  0.24852505E+03
   0.13500002E+05  -.85000000E+04  0.22837991E+03  0.13500002E+05  -.85000000E+04  0.25037976E+03
   0.14250003E+05  -.85000000E+04  0.23183347E+03  0.14250003E+05  -.85000000E+04  0.25384058E+03
   0.15000000E+05  -.85000000E+04  0.23677029E+03  0.15000000E+05  -.85000000E+04  0.25877800E+03
   0.00000000E+00  -.80000000E+04  0.23675720E+03  0.00000000E+00  -.80000000E+04  0.25549121E+03
   0.75000000E+03  -.80000000E+04  0.23066230E+03  0.75000000E+03  -.80000000E+04  0.25283372E+03
   0.15000000E+04  -.80000000E+04  0.22928137E+03  0.15000000E+04  -.80000000E+04  0.25132412E+03
   0.22500000E+04  -.80000000E+04  0.22749451E+03  0.22500000E+04  -.80000000E+04  0.24939685E+03
   0.30000000E+04  -.80000000E+04  0.23073413E+03  0.30000000E+04  -.80000000E+04  0.25248787E+03
   0.37500000E+04  -.80000000E+04  0.22369612E+03  0.37500000E+04  -.80000000E+04  0.24511667E+03
   0.45000000E+04  -.80000000E+04  0.21682151E+03  0.45000000E+04  -.80000000E+04  0.23765476E+03
   0.52500004E+04  -.80000000E+04  0.21417478E+03  0.52500004E+04  -.80000000E+04  0.23533657E+03
   0.59999996E+04  -.80000000E+04  0.21242600E+03  0.59999996E+04  -.80000000E+04  0.23352585E+03
   0.67499992E+04  -.80000000E+04  0.21145378E+03  0.67499992E+04  -.80000000E+04  0.23101230E+03
   0.74999992E+04  -.80000000E+04  0.21137021E+03  0.74999992E+04  -.80000000E+04  0.22923843E+03
   0.82500008E+04  -.80000000E+04  0.21131470E+03  0.82500008E+04  -.80000000E+04  0.22982781E+03
   0.90000016E+04  -.80000000E+04  0.21145640E+03  0.90000016E+04  -.80000000E+04  0.23302634E+03
   0.97500016E+04  -.80000000E+04  0.21206379E+03  0.97500016E+04  -.80000000E+04  0.23637393E+03
   0.10500002E+05  -.80000000E+04  0.21351587E+03  0.10500002E+05  -.80000000E+04  0.23439351E+03
   0.11250002E+05  -.80000000E+04  0.21500007E+03  0.11250002E+05  -.80000000E+04  0.23552141E+03
   0.12000000E+05  -.80000000E+04  0.22317375E+03  0.12000000E+05  -.80000000E+04  0.24506521E+03
   0.12750000E+05  -.80000000E+04  0.22576570E+03  0.12750000E+05  -.80000000E+04  0.24777786E+03
   0.13500002E+05  -.80000000E+04  0.22736816E+03  0.13500002E+05  -.80000000E+04  0.24937649E+03
   0.14250003E+05  -.80000000E+04  0.23058682E+03  0.14250003E+05  -.80000000E+04  0.25259292E+03
   0.15000000E+05  -.80000000E+04  0.23486787E+03  0.15000000E+05  -.80000000E+04  0.25687056E+03
   0.00000000E+00  -.75000000E+04  0.23499399E+03  0.00000000E+00  -.75000000E+04  0.25491548E+03
   0.74999990E+03  -.75000000E+04  0.23016992E+03  0.74999990E+03  -.75000000E+04  0.25246108E+03
   0.15000000E+04  -.75000000E+04  0.22888069E+03  0.15000000E+04  -.75000000E+04  0.25088335E+03
   0.22499996E+04  -.75000000E+04  0.22629436E+03  0.22499996E+04  -.75000000E+04  0.24829749E+03
   0.30000000E+04  -.75000000E+04  0.23003496E+03  0.30000000E+04  -.75000000E+04  0.25201721E+03
   0.37500000E+04  -.75000000E+04  0.22090271E+03  0.37500000E+04  -.75000000E+04  0.24206570E+03
   0.45000000E+04  -.75000000E+04  0.21580474E+03  0.45000000E+04  -.75000000E+04  0.23771069E+03
   0.52500004E+04  -.75000000E+04  0.21339324E+03  0.52500004E+04  -.75000000E+04  0.23406584E+03
   0.59999996E+04  -.75000000E+04  0.21170090E+03  0.59999996E+04  -.75000000E+04  0.23244431E+03
   0.67499992E+04  -.75000000E+04  0.21103333E+03  0.67499992E+04  -.75000000E+04  0.22358396E+03
   0.74999992E+04  -.75000000E+04  0.20915898E+03  0.74999992E+04  -.75000000E+04  0.21542148E+03
   0.82500008E+04  -.75000000E+04  0.20922368E+03  0.82500008E+04  -.75000000E+04  0.21613210E+03
   0.90000016E+04  -.75000000E+04  0.21095513E+03  0.90000016E+04  -.75000000E+04  0.22344412E+03
   0.97500016E+04  -.75000000E+04  0.21155303E+03  0.97500016E+04  -.75000000E+04  0.23200408E+03
   0.10500002E+05  -.75000000E+04  0.21277705E+03  0.10500002E+05  -.75000000E+04  0.23380674E+03
   0.11250002E+05  -.75000000E+04  0.21582791E+03  0.11250002E+05  -.75000000E+04  0.23575562E+03
   0.12000001E+05  -.75000000E+04  0.21863284E+03  0.12000001E+05  -.75000000E+04  0.23693135E+03
   0.12750001E+05  -.75000000E+04  0.22526201E+03  0.12750001E+05  -.75000000E+04  0.24719888E+03
   0.13500002E+05  -.75000000E+04  0.22702046E+03  0.13500002E+05  -.75000000E+04  0.24911575E+03
   0.14250003E+05  -.75000000E+04  0.23285127E+03  0.14250003E+05  -.75000000E+04  0.25482827E+03
   0.15000000E+05  -.75000000E+04  0.23448616E+03  0.15000000E+05  -.75000000E+04  0.25649680E+03
   0.00000000E+00  -.70000000E+04  0.23338000E+03  0.00000000E+00  -.70000000E+04  0.25449221E+03
   0.74999990E+03  -.70000000E+04  0.23018320E+03  0.74999990E+03  -.70000000E+04  0.25230571E+03
   0.15000000E+04  -.70000000E+04  0.22849087E+03  0.15000000E+04  -.70000000E+04  0.25049834E+03
   0.22499996E+04  -.70000000E+04  0.22620562E+03  0.22499996E+04  -.70000000E+04  0.24823313E+03
   0.30000000E+04  -.70000000E+04  0.23024377E+03  0.30000000E+04  -.70000000E+04  0.25211038E+03
   0.37500000E+04  -.70000000E+04  0.21720681E+03  0.37500000E+04  -.70000000E+04  0.23806982E+03
   0.45000000E+04  -.70000000E+04  0.21511965E+03  0.45000000E+04  -.70000000E+04  0.23673169E+03
   0.52500000E+04  -.70000000E+04  0.21280681E+03  0.52500000E+04  -.70000000E+04  0.23343264E+03
   0.59999992E+04  -.70000000E+04  0.21158730E+03  0.59999992E+04  -.70000000E+04  0.22944106E+03
   0.67499992E+04  -.70000000E+04  0.20934397E+03  0.67499992E+04  -.70000000E+04  0.21672678E+03
   0.74999992E+04  -.70000000E+04  0.20318440E+03  0.74999992E+04  -.70000000E+04  0.20318440E+03
   0.82500008E+04  -.70000000E+04  0.20236128E+03  0.82500008E+04  -.70000000E+04  0.20236128E+03
   0.90000016E+04  -.70000000E+04  0.20832905E+03  0.90000016E+04  -.70000000E+04  0.20987910E+03
   0.97500016E+04  -.70000000E+04  0.21145664E+03  0.97500016E+04  -.70000000E+04  0.22649534E+03
   0.10500002E+05  -.70000000E+04  0.21234407E+03  0.10500002E+05  -.70000000E+04  0.23379553E+03
   0.11250002E+05  -.70000000E+04  0.21540632E+03  0.11250002E+05  -.70000000E+04  0.23559626E+03
   0.12000001E+05  -.70000000E+04  0.21951948E+03  0.12000001E+05  -.70000000E+04  0.23761660E+03
   0.12750001E+05  -.70000000E+04  0.22124878E+03  0.12750001E+05  -.70000000E+04  0.24045059E+03
   0.13499998E+05  -.70000000E+04  0.22634629E+03  0.13499998E+05  -.70000000E+04  0.24841814E+03
   0.14250000E+05  -.70000000E+04  0.22987251E+03  0.14250000E+05  -.70000000E+04  0.25182188E+03
   0.15000000E+05  -.70000000E+04  0.23451660E+03  0.15000000E+05  -.70000000E+04  0.25651782E+03
   0.00000000E+00  -.65000004E+04  0.23214500E+03  0.00000000E+00  -.65000004E+04  0.25412910E+03
   0.74999990E+03  -.65000004E+04  0.23015171E+03  0.74999990E+03  -.65000004E+04  0.25216909E+03
   0.15000000E+04  -.65000004E+04  0.22824268E+03  0.15000000E+04  -.65000004E+04  0.25024756E+03
   0.22499996E+04  -.65000004E+04  0.22618489E+03  0.22499996E+04  -.65000004E+04  0.24820049E+03
   0.30000000E+04  -.65000004E+04  0.22004775E+03  0.30000000E+04  -.65000004E+04  0.24142649E+03
   0.37500000E+04  -.65000004E+04  0.21655637E+03  0.37500000E+04  -.65000004E+04  0.23746643E+03
   0.45000000E+04  -.65000004E+04  0.21471099E+03  0.45000000E+04  -.65000004E+04  0.23602996E+03
   0.52500000E+04  -.65000004E+04  0.21242759E+03  0.52500000E+04  -.65000004E+04  0.23320671E+03
   0.60000000E+04  -.65000004E+04  0.21146123E+03  0.60000000E+04  -.65000004E+04  0.22686191E+03
   0.67499992E+04  -.65000004E+04  0.20822651E+03  0.67499992E+04  -.65000004E+04  0.21048733E+03
   0.74999992E+04  -.64999996E+04  0.20153510E+03  0.74999992E+04  -.64999996E+04  0.20153510E+03
   0.82500008E+04  -.65000008E+04  0.20000983E+03  0.82500008E+04  -.65000008E+04  0.20000983E+03
   0.90000016E+04  -.65000008E+04  0.20414299E+03  0.90000016E+04  -.65000008E+04  0.20414299E+03
   0.97500016E+04  -.65000008E+04  0.21141743E+03  0.97500016E+04  -.65000008E+04  0.22387317E+03
   0.10500002E+05  -.65000008E+04  0.21221777E+03  0.10500002E+05  -.65000008E+04  0.23358931E+03
   0.11250002E+05  -.65000008E+04  0.21508196E+03  0.11250002E+05  -.65000008E+04  0.23550410E+03
   0.12000000E+05  -.64999992E+04  0.21939788E+03  0.12000000E+05  -.64999992E+04  0.23747305E+03
   0.12750000E+05  -.65000000E+04  0.22138853E+03  0.12750000E+05  -.65000000E+04  0.24070696E+03
   0.13500002E+05  -.65000000E+04  0.22935186E+03  0.13500002E+05  -.65000000E+04  0.25130930E+03
   0.14250003E+05  -.65000000E+04  0.22981221E+03  0.14250003E+05  -.65000000E+04  0.25183037E+03
   0.15000000E+05  -.64999996E+04  0.23433459E+03  0.15000000E+05  -.64999996E+04  0.25630742E+03
   0.00000000E+00  -.60000000E+04  0.23201680E+03  0.00000000E+00  -.60000000E+04  0.25401680E+03
   0.74999990E+03  -.60000004E+04  0.23002124E+03  0.74999990E+03  -.60000004E+04  0.25202002E+03
   0.14999998E+04  -.60000004E+04  0.22811055E+03  0.14999998E+04  -.60000004E+04  0.25011055E+03
   0.22499996E+04  -.60000004E+04  0.22038525E+03  0.22499996E+04  -.60000004E+04  0.24141460E+03
   0.29999996E+04  -.60000004E+04  0.21802476E+03  0.29999996E+04  -.60000004E+04  0.23902034E+03
   0.37500000E+04  -.60000004E+04  0.21622598E+03  0.37500000E+04  -.60000004E+04  0.23714370E+03
   0.45000000E+04  -.60000004E+04  0.21448242E+03  0.45000000E+04  -.60000004E+04  0.23569380E+03
   0.52499996E+04  -.60000004E+04  0.21228823E+03  0.52499996E+04  -.60000004E+04  0.23310925E+03
   0.59999996E+04  -.59999996E+04  0.21142839E+03  0.59999996E+04  -.59999996E+04  0.22568672E+03
   0.67499992E+04  -.59999996E+04  0.20757627E+03  0.67499992E+04  -.59999996E+04  0.20903267E+03
   0.74999992E+04  -.60000008E+04  0.20159840E+03  0.74999992E+04  -.60000008E+04  0.20159840E+03
   0.82500008E+04  -.60000008E+04  0.20019285E+03  0.82500008E+04  -.60000008E+04  0.20019285E+03
   0.90000016E+04  -.60000008E+04  0.20460562E+03  0.90000016E+04  -.60000008E+04  0.20460562E+03
   0.97500016E+04  -.60000008E+04  0.21148013E+03  0.97500016E+04  -.60000008E+04  0.22446646E+03
   0.10500002E+05  -.60000008E+04  0.21233643E+03  0.10500002E+05  -.60000008E+04  0.23359119E+03
   0.11250002E+05  -.60000008E+04  0.21539631E+03  0.11250002E+05  -.60000008E+04  0.23554209E+03
   0.12000002E+05  -.60000000E+04  0.21945576E+03  0.12000002E+05  -.60000000E+04  0.23753696E+03
   0.12750001E+05  -.60000000E+04  0.23303210E+03  0.12750001E+05  -.60000000E+04  0.25418860E+03
   0.13500002E+05  -.60000000E+04  0.23405627E+03  0.13500002E+05  -.60000000E+04  0.25553813E+03
   0.14250003E+05  -.60000008E+04  0.23544580E+03  0.14250003E+05  -.60000008E+04  0.25855295E+03
   0.15000000E+05  -.60000000E+04  0.23636997E+03  0.15000000E+05  -.60000000E+04  0.26030479E+03
   0.00000000E+00  -.55000004E+04  0.23194670E+03  0.00000000E+00  -.55000004E+04  0.25394761E+03
   0.75000000E+03  -.55000004E+04  0.22994980E+03  0.75000000E+03  -.55000004E+04  0.25194980E+03
   0.14999998E+04  -.55000004E+04  0.22808320E+03  0.14999998E+04  -.55000004E+04  0.25008508E+03
   0.22499996E+04  -.55000004E+04  0.22195525E+03  0.22499996E+04  -.55000004E+04  0.24295410E+03
   0.30000000E+04  -.55000004E+04  0.21880176E+03  0.30000000E+04  -.55000004E+04  0.23979529E+03
   0.37500000E+04  -.55000004E+04  0.21628428E+03  0.37500000E+04  -.55000004E+04  0.23724980E+03
   0.45000000E+04  -.55000004E+04  0.21448254E+03  0.45000000E+04  -.55000004E+04  0.23569170E+03
   0.52499996E+04  -.55000004E+04  0.21246399E+03  0.52499996E+04  -.55000004E+04  0.23313022E+03
   0.59999996E+04  -.55000004E+04  0.21153660E+03  0.59999996E+04  -.55000004E+04  0.22674219E+03
   0.67499992E+04  -.55000008E+04  0.21019028E+03  0.67499992E+04  -.55000008E+04  0.21328894E+03
   0.74999992E+04  -.55000000E+04  0.20333269E+03  0.74999992E+04  -.55000000E+04  0.20333269E+03
   0.82500008E+04  -.55000000E+04  0.20301948E+03  0.82500008E+04  -.55000000E+04  0.20301948E+03
   0.90000016E+04  -.55000008E+04  0.20970610E+03  0.90000016E+04  -.55000008E+04  0.21140115E+03
   0.97500016E+04  -.55000008E+04  0.21156218E+03  0.97500016E+04  -.55000008E+04  0.22794417E+03
   0.10500002E+05  -.55000008E+04  0.21264949E+03  0.10500002E+05  -.55000008E+04  0.23389307E+03
   0.11250002E+05  -.55000008E+04  0.21582209E+03  0.11250002E+05  -.55000008E+04  0.23553555E+03
   0.12000001E+05  -.55000008E+04  0.21974995E+03  0.12000001E+05  -.55000008E+04  0.23803481E+03
   0.12750001E+05  -.55000000E+04  0.23223918E+03  0.12750001E+05  -.55000000E+04  0.25324373E+03
   0.13499998E+05  -.55000000E+04  0.23379766E+03  0.13499998E+05  -.55000000E+04  0.25513323E+03
   0.14250000E+05  -.55000000E+04  0.23682842E+03  0.14250000E+05  -.55000000E+04  0.26065117E+03
   0.15000000E+05  -.54999996E+04  0.23766841E+03  0.15000000E+05  -.54999996E+04  0.26241338E+03
   0.00000000E+00  -.50000004E+04  0.23194800E+03  0.00000000E+00  -.50000004E+04  0.25395000E+03
   0.74999990E+03  -.50000008E+04  0.22997710E+03  0.74999990E+03  -.50000008E+04  0.25197710E+03
   0.14999998E+04  -.50000008E+04  0.22514858E+03  0.14999998E+04  -.50000008E+04  0.24616226E+03
   0.22499996E+04  -.50000008E+04  0.22380557E+03  0.22499996E+04  -.50000008E+04  0.24480586E+03
   0.30000000E+04  -.50000008E+04  0.22023701E+03  0.30000000E+04  -.50000008E+04  0.24124521E+03
   0.37500000E+04  -.50000008E+04  0.21693298E+03  0.37500000E+04  -.50000008E+04  0.23789800E+03
   0.45000000E+04  -.50000008E+04  0.21478198E+03  0.45000000E+04  -.50000008E+04  0.23596211E+03
   0.52499996E+04  -.50000000E+04  0.21281665E+03  0.52499996E+04  -.50000000E+04  0.23318311E+03
   0.59999996E+04  -.50000004E+04  0.21169219E+03  0.59999996E+04  -.50000004E+04  0.23037959E+03
   0.67499992E+04  -.50000004E+04  0.21149556E+03  0.67499992E+04  -.50000004E+04  0.22042363E+03
   0.74999992E+04  -.50000004E+04  0.20961399E+03  0.74999992E+04  -.50000004E+04  0.21050298E+03
   0.82500008E+04  -.50000004E+04  0.20994907E+03  0.82500008E+04  -.50000004E+04  0.21127041E+03
   0.90000016E+04  -.50000004E+04  0.21135420E+03  0.90000016E+04  -.50000004E+04  0.22198262E+03
   0.97500016E+04  -.49999996E+04  0.21180149E+03  0.97500016E+04  -.49999996E+04  0.23227637E+03
   0.10500002E+05  -.49999996E+04  0.21315059E+03  0.10500002E+05  -.49999996E+04  0.23416689E+03
   0.11250002E+05  -.49999996E+04  0.21643726E+03  0.11250002E+05  -.49999996E+04  0.23564348E+03
   0.12000001E+05  -.49999996E+04  0.22836162E+03  0.12000001E+05  -.49999996E+04  0.25073779E+03
   0.12750001E+05  -.49999996E+04  0.23089614E+03  0.12750001E+05  -.49999996E+04  0.25205540E+03
   0.13499998E+05  -.49999996E+04  0.23434810E+03  0.13499998E+05  -.49999996E+04  0.25590635E+03
   0.14250000E+05  -.49999996E+04  0.23703540E+03  0.14250000E+05  -.49999996E+04  0.26106895E+03
   0.15000000E+05  -.49999992E+04  0.23933799E+03  0.15000000E+05  -.49999992E+04  0.26575000E+03
   0.00000000E+00  -.45000004E+04  0.23204441E+03  0.00000000E+00  -.45000004E+04  0.25403970E+03
   0.74999990E+03  -.45000008E+04  0.23007800E+03  0.74999990E+03  -.45000008E+04  0.25208196E+03
   0.14999998E+04  -.45000008E+04  0.22661497E+03  0.14999998E+04  -.45000008E+04  0.24778730E+03
   0.22499996E+04  -.45000008E+04  0.22502742E+03  0.22499996E+04  -.45000008E+04  0.24598323E+03
   0.30000000E+04  -.45000008E+04  0.22154438E+03  0.30000000E+04  -.45000008E+04  0.24254878E+03
   0.37500000E+04  -.45000008E+04  0.21809102E+03  0.37500000E+04  -.45000008E+04  0.23907029E+03
   0.44999992E+04  -.45000000E+04  0.21554165E+03  0.44999992E+04  -.45000000E+04  0.23662854E+03
   0.52499996E+04  -.45000004E+04  0.21341523E+03  0.52499996E+04  -.45000004E+04  0.23407822E+03
   0.59999992E+04  -.45000004E+04  0.21232563E+03  0.59999992E+04  -.45000004E+04  0.23313916E+03
   0.67499992E+04  -.45000004E+04  0.21182942E+03  0.67499992E+04  -.45000004E+04  0.22924688E+03
   0.74999992E+04  -.45000004E+04  0.21168340E+03  0.74999992E+04  -.45000004E+04  0.22462524E+03
   0.82500008E+04  -.45000004E+04  0.21166680E+03  0.82500008E+04  -.45000004E+04  0.22479233E+03
   0.90000016E+04  -.45000004E+04  0.21174062E+03  0.90000016E+04  -.45000004E+04  0.22972153E+03
   0.97500016E+04  -.44999996E+04  0.21244067E+03  0.97500016E+04  -.44999996E+04  0.23398018E+03
   0.10500002E+05  -.44999996E+04  0.21396519E+03  0.10500002E+05  -.44999996E+04  0.23496782E+03
   0.11250002E+05  -.44999996E+04  0.22656240E+03  0.11250002E+05  -.44999996E+04  0.24954624E+03
   0.12000000E+05  -.44999996E+04  0.22689939E+03  0.12000000E+05  -.44999996E+04  0.24984131E+03
   0.12750001E+05  -.44999996E+04  0.23183501E+03  0.12750001E+05  -.44999996E+04  0.25289258E+03
   0.13499998E+05  -.44999996E+04  0.23483145E+03  0.13499998E+05  -.44999996E+04  0.25670059E+03
   0.14250000E+05  -.44999996E+04  0.23736680E+03  0.14250000E+05  -.44999996E+04  0.26172539E+03
   0.15000000E+05  -.44999992E+04  0.24015359E+03  0.15000000E+05  -.44999992E+04  0.26731011E+03
   0.00000000E+00  -.40000004E+04  0.23288840E+03  0.00000000E+00  -.40000004E+04  0.25430879E+03
   0.74999990E+03  -.40000008E+04  0.23020078E+03  0.74999990E+03  -.40000008E+04  0.25223279E+03
   0.14999998E+04  -.40000008E+04  0.22770352E+03  0.14999998E+04  -.40000008E+04  0.24923269E+03
   0.22499996E+04  -.40000008E+04  0.22584941E+03  0.22499996E+04  -.40000008E+04  0.24682791E+03
   0.29999996E+04  -.40000008E+04  0.22289207E+03  0.29999996E+04  -.40000008E+04  0.24388936E+03
   0.37500000E+04  -.40000008E+04  0.21958589E+03  0.37500000E+04  -.40000008E+04  0.24059138E+03
   0.45000000E+04  -.40000000E+04  0.21697344E+03  0.45000000E+04  -.40000000E+04  0.23797285E+03
   0.52499996E+04  -.40000004E+04  0.21457861E+03  0.52499996E+04  -.40000004E+04  0.23572842E+03
   0.59999996E+04  -.40000004E+04  0.21314592E+03  0.59999996E+04  -.40000004E+04  0.23362576E+03
   0.67499992E+04  -.40000004E+04  0.21267129E+03  0.67499992E+04  -.40000004E+04  0.23367292E+03
   0.74999992E+04  -.40000004E+04  0.21242361E+03  0.74999992E+04  -.40000004E+04  0.23283540E+03
   0.82500008E+04  -.40000004E+04  0.21240435E+03  0.82500008E+04  -.40000004E+04  0.23264629E+03
   0.90000016E+04  -.40000004E+04  0.21255779E+03  0.90000016E+04  -.40000004E+04  0.23366321E+03
   0.97500016E+04  -.39999996E+04  0.21327075E+03  0.97500016E+04  -.39999996E+04  0.23382368E+03
   0.10500002E+05  -.39999996E+04  0.22623442E+03  0.10500002E+05  -.39999996E+04  0.24925044E+03
   0.11250000E+05  -.39999996E+04  0.22632095E+03  0.11250000E+05  -.39999996E+04  0.24934229E+03
   0.12000001E+05  -.39999996E+04  0.22754233E+03  0.12000001E+05  -.39999996E+04  0.25032883E+03
   0.12750001E+05  -.39999996E+04  0.23295032E+03  0.12750001E+05  -.39999996E+04  0.25395691E+03
   0.13499998E+05  -.39999996E+04  0.23539019E+03  0.13499998E+05  -.39999996E+04  0.25774475E+03
   0.14250003E+05  -.40000000E+04  0.23783831E+03  0.14250003E+05  -.40000000E+04  0.26266575E+03
   0.15000000E+05  -.39999992E+04  0.24067363E+03  0.15000000E+05  -.39999992E+04  0.26833320E+03
   0.00000000E+00  -.35000008E+04  0.23442979E+03  0.00000000E+00  -.35000008E+04  0.25458469E+03
   0.74999990E+03  -.35000008E+04  0.23025454E+03  0.74999990E+03  -.35000008E+04  0.25231116E+03
   0.14999998E+04  -.35000008E+04  0.22873481E+03  0.14999998E+04  -.35000008E+04  0.25068054E+03
   0.22499996E+04  -.35000008E+04  0.22660234E+03  0.22499996E+04  -.35000008E+04  0.24774326E+03
   0.29999996E+04  -.35000008E+04  0.22412866E+03  0.29999996E+04  -.35000008E+04  0.24507356E+03
   0.37499992E+04  -.35000008E+04  0.22136689E+03  0.37499992E+04  -.35000008E+04  0.24236655E+03
   0.45000000E+04  -.35000012E+04  0.21883132E+03  0.45000000E+04  -.35000012E+04  0.23983132E+03
   0.52499996E+04  -.35000004E+04  0.21672502E+03  0.52499996E+04  -.35000004E+04  0.23776187E+03
   0.59999996E+04  -.35000012E+04  0.21471099E+03  0.59999996E+04  -.35000012E+04  0.23595623E+03
   0.67499992E+04  -.35000004E+04  0.21359629E+03  0.67499992E+04  -.35000004E+04  0.23446799E+03
   0.74999992E+04  -.35000004E+04  0.21314302E+03  0.74999992E+04  -.35000004E+04  0.23362805E+03
   0.82500008E+04  -.35000004E+04  0.21311499E+03  0.82500008E+04  -.35000004E+04  0.23353823E+03
   0.90000016E+04  -.35000004E+04  0.21347681E+03  0.90000016E+04  -.35000004E+04  0.23425500E+03
   0.97500016E+04  -.35000004E+04  0.21457034E+03  0.97500016E+04  -.35000004E+04  0.23589758E+03
   0.10500002E+05  -.35000004E+04  0.22637773E+03  0.10500002E+05  -.35000004E+04  0.24935378E+03
   0.11250000E+05  -.35000004E+04  0.22654316E+03  0.11250000E+05  -.35000004E+04  0.24952080E+03
   0.12000002E+05  -.35000004E+04  0.23047383E+03  0.12000002E+05  -.35000004E+04  0.25201143E+03
   0.12750000E+05  -.35000004E+04  0.23384829E+03  0.12750000E+05  -.35000004E+04  0.25518840E+03
   0.13499998E+05  -.35000008E+04  0.23601809E+03  0.13499998E+05  -.35000008E+04  0.25901621E+03
   0.14250000E+05  -.35000008E+04  0.23845698E+03  0.14250000E+05  -.35000008E+04  0.26390286E+03
   0.15000000E+05  -.34999996E+04  0.24131831E+03  0.15000000E+05  -.34999996E+04  0.26948420E+03
   0.00000000E+00  -.30000006E+04  0.23633621E+03  0.00000000E+00  -.30000006E+04  0.25518301E+03
   0.74999990E+03  -.30000006E+04  0.23200906E+03  0.74999990E+03  -.30000006E+04  0.25405554E+03
   0.14999998E+04  -.30000002E+04  0.22964424E+03  0.14999998E+04  -.30000002E+04  0.25171277E+03
   0.22499996E+04  -.30000008E+04  0.22737708E+03  0.22499996E+04  -.30000008E+04  0.24886499E+03
   0.29999996E+04  -.30000008E+04  0.22554097E+03  0.29999996E+04  -.30000008E+04  0.24647278E+03
   0.37499992E+04  -.30000004E+04  0.22318665E+03  0.37499992E+04  -.30000004E+04  0.24417786E+03
   0.45000000E+04  -.30000004E+04  0.22088621E+03  0.45000000E+04  -.30000004E+04  0.24188621E+03
   0.52499996E+04  -.30000004E+04  0.21918574E+03  0.52499996E+04  -.30000004E+04  0.24018835E+03
   0.60000000E+04  -.30000004E+04  0.21750676E+03  0.60000000E+04  -.30000004E+04  0.23850232E+03